LAMMPS Description

40 atoms

1 atom types

-5000000.0 5000000.0 xlo xhi
-5000000.0 5000000.0 ylo yhi
-5000000.0 5000000.0 zlo zhi

Masses

  1 1.0

Atoms

1 1 1 -20902.111627496342 5048.204818646671 19142.759072093453
2 1 1 4046.4678715564096 960.1726358521789 5249.752131164065
3 1 1 346.5172980120019 21703.655725254222 4491.889607559354
4 1 1 22884.771392505776 -15112.773972806393 9262.15761641784
5 1 1 5209.259696283164 13196.172525566839 20234.380496419744
6 1 1 -7736.726198321943 -2431.1611523746433 10006.758628413316
7 1 1 5125.1853970848715 -11623.595006531386 -22589.023451826375
8 1 1 -18782.887127394122 -7580.628420429143 -7745.059669026831
9 1 1 18426.012572346674 15366.745878199274 -9828.27502629081
10 1 1 -6577.11602813744 -15767.433655555871 2101.1537809593847
11 1 1 -20172.685236461635 -11089.775538682632 -1201.4404511056402
12 1 1 -19187.612163642632 -1565.205739293004 13278.715424036054
13 1 1 -6446.675499448224 -20235.923166545756 520.8826021157575
14 1 1 10739.270218855172 -2707.5803039576886 -12851.84335520681
15 1 1 -9865.512878091413 -6848.201692743885 9636.938221660921
16 1 1 2244.452819754529 -15243.800997206452 -19092.66313744331
17 1 1 -8858.876793645566 -18019.646131310637 10429.942535401646
18 1 1 12946.699512042482 18526.214213705465 -9283.614879858853
19 1 1 19444.511784874863 15769.138578418959 2399.812828873007
20 1 1 -3795.0110654908785 -187.16121305570255 18150.834460008246
21 1 1 -2529.8091579635143 -12284.32377256897 -14037.750558174565
22 1 1 -3160.827121572956 -1165.786052897092 3132.047759175743
23 1 1 -5315.063855048356 -17754.499278725838 -8323.711208296636
24 1 1 9849.25088300935 -14602.118069009752 -11140.020485747971
25 1 1 -4394.487244561467 14770.329842977551 8290.537719363147
26 1 1 -13459.10013391241 9674.377236149647 13471.242805039206
27 1 1 -2635.162182073752 22684.40094061584 -6699.859783749328
28 1 1 -14193.588988654816 -15077.927444514244 -2793.4367831022846
29 1 1 -26173.517816944965 -10260.66660863646 1652.118172859843
30 1 1 21560.32957021082 -17363.869549402865 -8509.952420702208
31 1 1 15076.817496416857 13639.184536413728 17742.39398440677
32 1 1 -10249.425689761258 16085.437458546105 10316.537707052239
33 1 1 4615.8330857401725 -1935.6080260394897 -24737.766844069196
34 1 1 -14562.86775819912 -311.468792033575 15589.129278764778
35 1 1 7663.840522756765 -12600.652355166676 -23111.480184366384
36 1 1 6465.387412878143 10815.20654274964 -23255.419029282966
37 1 1 537.1888406587415 -7017.536316254601 4204.99904850157
38 1 1 2857.069039169787 24485.862462874808 2918.881278793641
39 1 1 -4104.776293094236 -23506.302903877327 -2762.1425473479535
40 1 1 -15970.259160655825 16573.681728090633 10277.595260961602
